 title ="Partition_2"
 variables = "x", "y", "Temperature", "Temperature exact" "T-Texact"
 zone T=Partition_2 i=         130 j=          34 f=point
   0.0000000000000000       0.49218750000000000       0.70710669524840175        0.0000000000000000       0.70710669524840175     
   7.7519379556179047E-003  0.49218750000000000        0.0000000000000000        6.8323101686179498E-003  -6.8323101686179498E-003
   1.5503875911235809E-002  0.49218750000000000        0.0000000000000000        1.3663069217133308E-002  -1.3663069217133308E-002
   2.3255813866853714E-002  0.49218750000000000        0.0000000000000000        2.0490728428654084E-002  -2.0490728428654084E-002
   3.1007751822471619E-002  0.49218750000000000        0.0000000000000000        2.7313743892164035E-002  -2.7313743892164035E-002
   3.8759689778089523E-002  0.49218750000000000        0.0000000000000000        3.4130578904097680E-002  -3.4130578904097680E-002
   4.6511627733707428E-002  0.49218750000000000        0.0000000000000000        4.0939706368282307E-002  -4.0939706368282307E-002
   5.4263565689325333E-002  0.49218750000000000        0.0000000000000000        4.7739611193706490E-002  -4.7739611193706490E-002
   6.2015503644943237E-002  0.49218750000000000        0.0000000000000000        5.4528792689578214E-002  -5.4528792689578214E-002
   6.9767445325851440E-002  0.49218750000000000        0.0000000000000000        6.1305770210730373E-002  -6.1305770210730373E-002
   7.7519379556179047E-002  0.49218750000000000        0.0000000000000000        6.8069069277710934E-002  -6.8069069277710934E-002
   8.5271321237087250E-002  0.49218750000000000        0.0000000000000000        7.4817259735506389E-002  -7.4817259735506389E-002
   9.3023255467414856E-002  0.49218750000000000        0.0000000000000000        8.1548909401251729E-002  -8.1548909401251729E-002
  0.10077519714832306       0.49218750000000000        0.0000000000000000        8.8262638318300418E-002  -8.8262638318300418E-002
  0.10852713137865067       0.49218750000000000        0.0000000000000000        9.4957069370609520E-002  -9.4957069370609520E-002
  0.11627907305955887       0.49218750000000000        0.0000000000000000       0.10163088225996286      -0.10163088225996286     
  0.12403100728988647       0.49218750000000000        0.0000000000000000       0.10828276439317407      -0.10828276439317407     
  0.13178294897079468       0.49218750000000000        0.0000000000000000       0.11491146453864765      -0.11491146453864765     
  0.13953489065170288       0.49218750000000000        0.0000000000000000       0.12151575036089253      -0.12151575036089253     
  0.14728681743144989       0.49218750000000000        0.0000000000000000       0.12809442372729082      -0.12809442372729082     
  0.15503875911235809       0.49218750000000000        0.0000000000000000       0.13464636716167866      -0.13464636716167866     
  0.16279070079326630       0.49218750000000000        0.0000000000000000       0.14117047027984228      -0.14117047027984228     
  0.17054264247417450       0.49218750000000000        0.0000000000000000       0.14766568272945413      -0.14766568272945413     
  0.17829456925392151       0.49218750000000000        0.0000000000000000       0.15413099141544367      -0.15413099141544367     
  0.18604651093482971       0.49218750000000000        0.0000000000000000       0.16056547243927075      -0.16056547243927075     
  0.19379845261573792       0.49218750000000000        0.0000000000000000       0.16696821880260870      -0.16696821880260870     
  0.20155039429664612       0.49218750000000000        0.0000000000000000       0.17333839244213839      -0.17333839244213839     
  0.20930232107639313       0.49218750000000000        0.0000000000000000       0.17967520187628275      -0.17967520187628275     
  0.21705426275730133       0.49218750000000000        0.0000000000000000       0.18597795310574053      -0.18597795310574053     
  0.22480620443820953       0.49218750000000000        0.0000000000000000       0.19224597875469476      -0.19224597875469476     
  0.23255814611911774       0.49218750000000000        0.0000000000000000       0.19847868907739913      -0.19847868907739913     
  0.24031007289886475       0.49218750000000000        0.0000000000000000       0.20467555007252877      -0.20467555007252877     
  0.24806201457977295       0.49218750000000000        0.0000000000000000       0.21083613325443601      -0.21083613325443601     
  0.25581395626068115       0.49218750000000000        0.0000000000000000       0.21696004636001170      -0.21696004636001170     
  0.26356589794158936       0.49218750000000000        0.0000000000000000       0.22304698323340622      -0.22304698323340622     
  0.27131783962249756       0.49218750000000000        0.0000000000000000       0.22909671403360243      -0.22909671403360243     
  0.27906978130340576       0.49218750000000000        0.0000000000000000       0.23510908737551872      -0.23510908737551872     
  0.28682169318199158       0.49218750000000000        0.0000000000000000       0.24108400955932419      -0.24108400955932419     
  0.29457363486289978       0.49218750000000000        0.0000000000000000       0.24702153842385977      -0.24702153842385977     
  0.30232557654380798       0.49218750000000000        0.0000000000000000       0.25292174762444475      -0.25292174762444475     
  0.31007751822471619       0.49218750000000000        0.0000000000000000       0.25878482074814996      -0.25878482074814996     
  0.31782945990562439       0.49218750000000000        0.0000000000000000       0.26461103034661376      -0.26461103034661376     
  0.32558140158653259       0.49218750000000000        0.0000000000000000       0.27040073999842940      -0.27040073999842940     
  0.33333334326744080       0.49218750000000000        0.0000000000000000       0.27615440635857030      -0.27615440635857030     
  0.34108528494834900       0.49218750000000000        0.0000000000000000       0.28187258119498215      -0.28187258119498215     
  0.34883719682693481       0.49218750000000000        0.0000000000000000       0.28755589162899364      -0.28755589162899364     
  0.35658913850784302       0.49218750000000000        0.0000000000000000       0.29320512941030008      -0.29320512941030008     
  0.36434108018875122       0.49218750000000000        0.0000000000000000       0.29882112182311227      -0.29882112182311227     
  0.37209302186965942       0.49218750000000000        0.0000000000000000       0.30440482120244555      -0.30440482120244555     
  0.37984496355056763       0.49218750000000000        0.0000000000000000       0.30995728499354730      -0.30995728499354730     
  0.38759690523147583       0.49218750000000000        0.0000000000000000       0.31547967771605911      -0.31547967771605911     
  0.39534884691238403       0.49218750000000000        0.0000000000000000       0.32097327291719729      -0.32097327291719729     
  0.40310078859329224       0.49218750000000000        0.0000000000000000       0.32643945511436245      -0.32643945511436245     
  0.41085270047187805       0.49218750000000000        0.0000000000000000       0.33187970086032020      -0.33187970086032020     
  0.41860464215278625       0.49218750000000000        0.0000000000000000       0.33729566422545981      -0.33729566422545981     
  0.42635658383369446       0.49218750000000000        0.0000000000000000       0.34268905323026960      -0.34268905323026960     
  0.43410852551460266       0.49218750000000000        0.0000000000000000       0.34806171550360443      -0.34806171550360443     
  0.44186046719551086       0.49218750000000000        0.0000000000000000       0.35341561921603798      -0.35341561921603798     
  0.44961240887641907       0.49218750000000000        0.0000000000000000       0.35875285496984449      -0.35875285496984449     
  0.45736435055732727       0.49218750000000000        0.0000000000000000       0.36407563768238871      -0.36407563768238871     
  0.46511629223823547       0.49218750000000000        0.0000000000000000       0.36938630846366133      -0.36938630846366133     
  0.47286820411682129       0.49218750000000000        0.0000000000000000       0.37468731612419259      -0.37468731612419259     
  0.48062014579772949       0.49218750000000000        0.0000000000000000       0.37998130052334661      -0.37998130052334661     
  0.48837208747863770       0.49218750000000000        0.0000000000000000       0.38527097217038231      -0.38527097217038231     
  0.49612402915954590       0.49218750000000000        0.0000000000000000       0.39055919563171454      -0.39055919563171454     
  0.50387597084045410       0.49218750000000000        0.0000000000000000       0.39584897099505301      -0.39584897099505301     
  0.51162791252136230       0.49218750000000000        0.0000000000000000       0.40114343572974276      -0.40114343572974276     
  0.51937985420227051       0.49218750000000000        0.0000000000000000       0.40644586654765791      -0.40644586654765791     
  0.52713179588317871       0.49218750000000000        0.0000000000000000       0.41175968126575441      -0.41175968126575441     
  0.53488373756408691       0.49218750000000000        0.0000000000000000       0.41708844067143119      -0.41708844067143119     
  0.54263567924499512       0.49218750000000000        0.0000000000000000       0.42243585039190623      -0.42243585039190623     
  0.55038762092590332       0.49218750000000000        0.0000000000000000       0.42780576276885635      -0.42780576276885635     
  0.55813956260681152       0.49218750000000000        0.0000000000000000       0.43320217873962674      -0.43320217873962674     
  0.56589144468307495       0.49218750000000000        0.0000000000000000       0.43862920786885545      -0.43862920786885545     
  0.57364338636398315       0.49218750000000000        0.0000000000000000       0.44409123739123590      -0.44409123739123590     
  0.58139532804489136       0.49218750000000000        0.0000000000000000       0.44959268379805922      -0.44959268379805922     
  0.58914726972579956       0.49218750000000000        0.0000000000000000       0.45513816140014235      -0.45513816140014235     
  0.59689921140670776       0.49218750000000000        0.0000000000000000       0.46073244265781182      -0.46073244265781182     
  0.60465115308761597       0.49218750000000000        0.0000000000000000       0.46638046013183915      -0.46638046013183915     
  0.61240309476852417       0.49218750000000000        0.0000000000000000       0.47208730845155156      -0.47208730845155156     
  0.62015503644943237       0.49218750000000000        0.0000000000000000       0.47785824630185514      -0.47785824630185514     
  0.62790697813034058       0.49218750000000000        0.0000000000000000       0.48369869843096075      -0.48369869843096075     
  0.63565891981124878       0.49218750000000000        0.0000000000000000       0.48961425768066519      -0.48961425768066519     
  0.64341086149215698       0.49218750000000000        0.0000000000000000       0.49561068704109212      -0.49561068704109212     
  0.65116280317306519       0.49218750000000000        0.0000000000000000       0.50169392173186367      -0.50169392173186367     
  0.65891474485397339       0.49218750000000000        0.0000000000000000       0.50787007131172923      -0.50787007131172923     
  0.66666668653488159       0.49218750000000000        0.0000000000000000       0.51414542181873713      -0.51414542181873713     
  0.67441862821578979       0.49218750000000000        0.0000000000000000       0.52052643794310105      -0.52052643794310105     
  0.68217056989669800       0.49218750000000000        0.0000000000000000       0.52701976523497185      -0.52701976523497185     
  0.68992245197296143       0.49218750000000000        0.0000000000000000       0.53363218103027066      -0.53363218103027066     
  0.69767439365386963       0.49218750000000000        0.0000000000000000       0.54037080101418100      -0.54037080101418100     
  0.70542633533477783       0.49218750000000000        0.0000000000000000       0.54724277656905851      -0.54724277656905851     
  0.71317827701568604       0.49218750000000000        0.0000000000000000       0.55425549954007836      -0.55425549954007836     
  0.72093021869659424       0.49218750000000000        0.0000000000000000       0.56141655427660253      -0.56141655427660253     
  0.72868216037750244       0.49218750000000000        0.0000000000000000       0.56873372009939205      -0.56873372009939205     
  0.73643410205841064       0.49218750000000000        0.0000000000000000       0.57621497382000708      -0.57621497382000708     
  0.74418604373931885       0.49218750000000000        0.0000000000000000       0.58386849231513149      -0.58386849231513149     
  0.75193798542022705       0.49218750000000000        0.0000000000000000       0.59170265515862819      -0.59170265515862819     
  0.75968992710113525       0.49218750000000000        0.0000000000000000       0.59972604731420187      -0.59972604731420187     
  0.76744186878204346       0.49218750000000000        0.0000000000000000       0.60794746189161586      -0.60794746189161586     
  0.77519381046295166       0.49218750000000000        0.0000000000000000       0.61637590296948364      -0.61637590296948364     
  0.78294575214385986       0.49218750000000000        0.0000000000000000       0.62502058848772979      -0.62502058848772979     
  0.79069769382476807       0.49218750000000000        0.0000000000000000       0.63389095321288413      -0.63389095321288413     
  0.79844963550567627       0.49218750000000000        0.0000000000000000       0.64299665177945542      -0.64299665177945542     
  0.80620157718658447       0.49218750000000000        0.0000000000000000       0.65234756181070175      -0.65234756181070175     
  0.81395345926284790       0.49218750000000000        0.0000000000000000       0.66195371225208244      -0.66195371225208244     
  0.82170540094375610       0.49218750000000000        0.0000000000000000       0.67182558405864035      -0.67182558405864035     
  0.82945734262466431       0.49218750000000000        0.0000000000000000       0.68197367052051971      -0.68197367052051971     
  0.83720928430557251       0.49218750000000000        0.0000000000000000       0.69240877413030688      -0.69240877413030688     
  0.84496122598648071       0.49218750000000000        0.0000000000000000       0.70314193728575203      -0.70314193728575203     
  0.85271316766738892       0.49218750000000000        0.0000000000000000       0.71418444596102715      -0.71418444596102715     
  0.86046510934829712       0.49218750000000000        0.0000000000000000       0.72554783348284158      -0.72554783348284158     
  0.86821705102920532       0.49218750000000000        0.0000000000000000       0.73724388441538791      -0.73724388441538791     
  0.87596899271011353       0.49218750000000000        0.0000000000000000       0.74928463855817207      -0.74928463855817207     
  0.88372093439102173       0.49218750000000000        0.0000000000000000       0.76168239506087498      -0.76168239506087498     
  0.89147287607192993       0.49218750000000000        0.0000000000000000       0.77444971665948314      -0.77444971665948314     
  0.89922481775283813       0.49218750000000000        0.0000000000000000       0.78759943403800725      -0.78759943403800725     
  0.90697675943374634       0.49218750000000000        0.0000000000000000       0.80114465032022009      -0.80114465032022009     
  0.91472870111465454       0.49218750000000000        0.0000000000000000       0.81509874569591434      -0.81509874569591434     
  0.92248064279556274       0.49218750000000000        0.0000000000000000       0.82947538218629946      -0.82947538218629946     
  0.93023258447647095       0.49218750000000000        0.0000000000000000       0.84428850855323823      -0.84428850855323823     
  0.93798446655273438       0.49218750000000000        0.0000000000000000       0.85955224622352244      -0.85955224622352244     
  0.94573640823364258       0.49218750000000000        0.0000000000000000       0.87528136740065754      -0.87528136740065754     
  0.95348834991455078       0.49218750000000000        0.0000000000000000       0.89149059642022599      -0.89149059642022599     
  0.96124029159545898       0.49218750000000000        0.0000000000000000       0.90819508114388270      -0.90819508114388270     
  0.96899223327636719       0.49218750000000000        0.0000000000000000       0.92541028304949047      -0.92541028304949047     
  0.97674417495727539       0.49218750000000000        0.0000000000000000       0.94315198310793247      -0.94315198310793247     
  0.98449611663818359       0.49218750000000000        0.0000000000000000       0.96143628783958635      -0.96143628783958635     
  0.99224805831909180       0.49218750000000000        0.0000000000000000       0.98027963555601894      -0.98027963555601894     
   1.0000000000000000       0.49218750000000000       0.70710669524840175       0.99969880279256362      -0.29259210754416187     
   0.0000000000000000       0.50000000000000000       0.70710669524840175        0.0000000000000000       0.70710669524840175     
   7.7519379556179047E-003  0.50000000000000000        0.0000000000000000        6.9613504225314142E-003  -6.9613504225314142E-003
   1.5503875911235809E-002  0.50000000000000000        0.0000000000000000        1.3921073949737763E-002  -1.3921073949737763E-002
   2.3255813866853714E-002  0.50000000000000000        0.0000000000000000        2.0877546134890741E-002  -2.0877546134890741E-002
   3.1007751822471619E-002  0.50000000000000000        0.0000000000000000        2.7829147427883436E-002  -2.7829147427883436E-002
   3.8759689778089523E-002  0.50000000000000000        0.0000000000000000        3.4774265622111597E-002  -3.4774265622111597E-002
   4.6511627733707428E-002  0.50000000000000000        0.0000000000000000        4.1711298299641916E-002  -4.1711298299641916E-002
   5.4263565689325333E-002  0.50000000000000000        0.0000000000000000        4.8638655274100467E-002  -4.8638655274100467E-002
   6.2015503644943237E-002  0.50000000000000000        0.0000000000000000        5.5554761030717728E-002  -5.5554761030717728E-002
   6.9767445325851440E-002  0.50000000000000000        0.0000000000000000        6.2458060477110645E-002  -6.2458060477110645E-002
   7.7519379556179047E-002  0.50000000000000000        0.0000000000000000        6.9347004805270049E-002  -6.9347004805270049E-002
   8.5271321237087250E-002  0.50000000000000000        0.0000000000000000        7.6220090360031204E-002  -7.6220090360031204E-002
   9.3023255467414856E-002  0.50000000000000000        0.0000000000000000        8.3075811426347554E-002  -8.3075811426347554E-002
  0.10077519714832306       0.50000000000000000        0.0000000000000000        8.9912715487278055E-002  -8.9912715487278055E-002
  0.10852713137865067       0.50000000000000000        0.0000000000000000        9.6729352928352025E-002  -9.6729352928352025E-002
  0.11627907305955887       0.50000000000000000        0.0000000000000000       0.10352433200488458      -0.10352433200488458     
  0.12403100728988647       0.50000000000000000        0.0000000000000000       0.11029626883283829      -0.11029626883283829     
  0.13178294897079468       0.50000000000000000        0.0000000000000000       0.11704384201932876      -0.11704384201932876     
  0.13953489065170288       0.50000000000000000        0.0000000000000000       0.12376574942900412      -0.12376574942900412     
  0.14728681743144989       0.50000000000000000        0.0000000000000000       0.13046072377307474      -0.13046072377307474     
  0.15503875911235809       0.50000000000000000        0.0000000000000000       0.13712757988005359      -0.13712757988005359     
  0.16279070079326630       0.50000000000000000        0.0000000000000000       0.14376513983060191      -0.14376513983060191     
  0.17054264247417450       0.50000000000000000        0.0000000000000000       0.15037228683481427      -0.15037228683481427     
  0.17829456925392151       0.50000000000000000        0.0000000000000000       0.15694794206209731      -0.15694794206209731     
  0.18604651093482971       0.50000000000000000        0.0000000000000000       0.16349111746523579      -0.16349111746523579     
  0.19379845261573792       0.50000000000000000        0.0000000000000000       0.17000084225001746      -0.17000084225001746     
  0.20155039429664612       0.50000000000000000        0.0000000000000000       0.17647621579991088      -0.17647621579991088     
  0.20930232107639313       0.50000000000000000        0.0000000000000000       0.18291638494989021      -0.18291638494989021     
  0.21705426275730133       0.50000000000000000        0.0000000000000000       0.18932059571518398      -0.18932059571518398     
  0.22480620443820953       0.50000000000000000        0.0000000000000000       0.19568812127656335      -0.19568812127656335     
  0.23255814611911774       0.50000000000000000        0.0000000000000000       0.20201831382102123      -0.20201831382102123     
  0.24031007289886475       0.50000000000000000        0.0000000000000000       0.20831058230928043      -0.20831058230928043     
  0.24806201457977295       0.50000000000000000        0.0000000000000000       0.21456444301095359      -0.21456444301095359     
  0.25581395626068115       0.50000000000000000        0.0000000000000000       0.22077944914441758      -0.22077944914441758     
  0.26356589794158936       0.50000000000000000        0.0000000000000000       0.22695524153204494      -0.22695524153204494     
  0.27131783962249756       0.50000000000000000        0.0000000000000000       0.23309153865440765      -0.23309153865440765     
  0.27906978130340576       0.50000000000000000        0.0000000000000000       0.23918813882263232      -0.23918813882263232     
  0.28682169318199158       0.50000000000000000        0.0000000000000000       0.24524489912818723      -0.24524489912818723     
  0.29457363486289978       0.50000000000000000        0.0000000000000000       0.25126183057528351      -0.25126183057528351     
  0.30232557654380798       0.50000000000000000        0.0000000000000000       0.25723896049942563      -0.25723896049942563     
  0.31007751822471619       0.50000000000000000        0.0000000000000000       0.26317642797852225      -0.26317642797852225     
  0.31782945990562439       0.50000000000000000        0.0000000000000000       0.26907446257350687      -0.26907446257350687     
  0.32558140158653259       0.50000000000000000        0.0000000000000000       0.27493338641689147      -0.27493338641689147     
  0.33333334326744080       0.50000000000000000        0.0000000000000000       0.28075361628745438      -0.28075361628745438     
  0.34108528494834900       0.50000000000000000        0.0000000000000000       0.28653566567117639      -0.28653566567117639     
  0.34883719682693481       0.50000000000000000        0.0000000000000000       0.29228012479526105      -0.29228012479526105     
  0.35658913850784302       0.50000000000000000        0.0000000000000000       0.29798775085547180      -0.29798775085547180     
  0.36434108018875122       0.50000000000000000        0.0000000000000000       0.30365933753306501      -0.30365933753306501     
  0.37209302186965942       0.50000000000000000        0.0000000000000000       0.30929580548260238      -0.30929580548260238     
  0.37984496355056763       0.50000000000000000        0.0000000000000000       0.31489818217058385      -0.31489818217058385     
  0.38759690523147583       0.50000000000000000        0.0000000000000000       0.32046760385816891      -0.32046760385816891     
  0.39534884691238403       0.50000000000000000        0.0000000000000000       0.32600531757191326      -0.32600531757191326     
  0.40310078859329224       0.50000000000000000        0.0000000000000000       0.33151268306291909      -0.33151268306291909     
  0.41085270047187805       0.50000000000000000        0.0000000000000000       0.33699115374629141      -0.33699115374629141     
  0.41860464215278625       0.50000000000000000        0.0000000000000000       0.34244236277434315      -0.34244236277434315     
  0.42635658383369446       0.50000000000000000        0.0000000000000000       0.34786799860065498      -0.34786799860065498     
  0.43410852551460266       0.50000000000000000        0.0000000000000000       0.35326989125003722      -0.35326989125003722     
  0.44186046719551086       0.50000000000000000        0.0000000000000000       0.35864999311056744      -0.35864999311056744     
  0.44961240887641907       0.50000000000000000        0.0000000000000000       0.36401038083385318      -0.36401038083385318     
  0.45736435055732727       0.50000000000000000        0.0000000000000000       0.36935325722763634      -0.36935325722763634     
  0.46511629223823547       0.50000000000000000        0.0000000000000000       0.37468095314147148      -0.37468095314147148     
  0.47286820411682129       0.50000000000000000        0.0000000000000000       0.37999590893400742      -0.37999590893400742     
  0.48062014579772949       0.50000000000000000        0.0000000000000000       0.38530075802993485      -0.38530075802993485     
  0.48837208747863770       0.50000000000000000        0.0000000000000000       0.39059820620417185      -0.39059820620417185     
  0.49612402915954590       0.50000000000000000        0.0000000000000000       0.39589111521930648      -0.39589111521930648     
  0.50387597084045410       0.50000000000000000        0.0000000000000000       0.40118248423292652      -0.40118248423292652     
  0.51162791252136230       0.50000000000000000        0.0000000000000000       0.40647545165960874      -0.40647545165960874     
  0.51937985420227051       0.50000000000000000        0.0000000000000000       0.41177329703237342      -0.41177329703237342     
  0.52713179588317871       0.50000000000000000        0.0000000000000000       0.41707944286470972      -0.41707944286470972     
  0.53488373756408691       0.50000000000000000        0.0000000000000000       0.42239745651432531      -0.42239745651432531     
  0.54263567924499512       0.50000000000000000        0.0000000000000000       0.42773105204982409      -0.42773105204982409     
  0.55038762092590332       0.50000000000000000        0.0000000000000000       0.43308409212156740      -0.43308409212156740     
  0.55813956260681152       0.50000000000000000        0.0000000000000000       0.43846058983802444      -0.43846058983802444     
  0.56589144468307495       0.50000000000000000        0.0000000000000000       0.44386466897954374      -0.44386466897954374     
  0.57364338636398315       0.50000000000000000        0.0000000000000000       0.44930073230491191      -0.44930073230491191     
  0.58139532804489136       0.50000000000000000        0.0000000000000000       0.45477321418879046      -0.45477321418879046     
  0.58914726972579956       0.50000000000000000        0.0000000000000000       0.46028674849283502      -0.46028674849283502     
  0.59689921140670776       0.50000000000000000        0.0000000000000000       0.46584612905031936      -0.46584612905031936     
  0.60465115308761597       0.50000000000000000        0.0000000000000000       0.47145631160583479      -0.47145631160583479     
  0.61240309476852417       0.50000000000000000        0.0000000000000000       0.47712241577112674      -0.47712241577112674     
  0.62015503644943237       0.50000000000000000        0.0000000000000000       0.48284972699880985      -0.48284972699880985     
  0.62790697813034058       0.50000000000000000        0.0000000000000000       0.48864369857576395      -0.48864369857576395     
  0.63565891981124878       0.50000000000000000        0.0000000000000000       0.49450995363807071      -0.49450995363807071     
  0.64341086149215698       0.50000000000000000        0.0000000000000000       0.50045428720940666      -0.50045428720940666     
  0.65116280317306519       0.50000000000000000        0.0000000000000000       0.50648266826487398      -0.50648266826487398     
  0.65891474485397339       0.50000000000000000        0.0000000000000000       0.51260124182230538      -0.51260124182230538     
  0.66666668653488159       0.50000000000000000        0.0000000000000000       0.51881633106314340      -0.51881633106314340     
  0.67441862821578979       0.50000000000000000        0.0000000000000000       0.52513443948505645      -0.52513443948505645     
  0.68217056989669800       0.50000000000000000        0.0000000000000000       0.53156225308851490      -0.53156225308851490     
  0.68992245197296143       0.50000000000000000        0.0000000000000000       0.53810659181369391      -0.53810659181369391     
  0.69767439365386963       0.50000000000000000        0.0000000000000000       0.54477461396735050      -0.54477461396735050     
  0.70542633533477783       0.50000000000000000        0.0000000000000000       0.55157351668798393      -0.55157351668798393     
  0.71317827701568604       0.50000000000000000        0.0000000000000000       0.55851073861218925      -0.55851073861218925     
  0.72093021869659424       0.50000000000000000        0.0000000000000000       0.56559391240396983      -0.56559391240396983     
  0.72868216037750244       0.50000000000000000        0.0000000000000000       0.57283086719539433      -0.57283086719539433     
  0.73643410205841064       0.50000000000000000        0.0000000000000000       0.58022963107860481      -0.58022963107860481     
  0.74418604373931885       0.50000000000000000        0.0000000000000000       0.58779843365192985      -0.58779843365192985     