 title ="Partition_3"
 variables = "x", "y", "Temperature", "Temperature exact" "T-Texact"
 zone T=Partition_3 i=         258 j=          44 f=point
   0.0000000000000000       0.49609375000000000        0.0000000000000000        0.0000000000000000        0.0000000000000000     
   3.8910505827516317E-003  0.49609375000000000        3.2986731225590976E-003   3.4618313072845466E-003  -1.6315818472544897E-004
   7.7821011655032635E-003  0.49609375000000000        6.5971627809667680E-003   6.9234616425535890E-003  -3.2629886158682102E-004
   1.1673151515424252E-002  0.49609375000000000        9.8952855865038405E-003   1.0384689903994564E-002  -4.8940431749072352E-004
   1.5564202331006527E-002  0.49609375000000000        1.3192858301350712E-002   1.3845315972767175E-002  -6.5245767141646274E-004
   1.9455252215266228E-002  0.49609375000000000        1.6489697913968884E-002   1.7305138098339459E-002  -8.1544018437057497E-004
   2.3346303030848503E-002  0.49609375000000000        1.9785621714587587E-002   2.0763957737829915E-002  -9.7833602324232799E-004
   2.7237353846430779E-002  0.49609375000000000        2.3080447370518987E-002   2.4221574250289066E-002  -1.1411268797700790E-003
   3.1128404662013054E-002  0.49609375000000000        2.6373993001648447E-002   2.7677788286611427E-002  -1.3037952849629802E-003
   3.5019453614950180E-002  0.49609375000000000        2.9666077255667795E-002   3.1132399385219788E-002  -1.4663221295519932E-003
   3.8910504430532455E-002  0.49609375000000000        3.2956519383553609E-002   3.4585212663376275E-002  -1.6286932798226655E-003
   4.2801555246114731E-002  0.49609375000000000        3.6245139314703106E-002   3.8036028971842918E-002  -1.7908896571398117E-003
   4.6692606061697006E-002  0.49609375000000000        3.9531757732384855E-002   4.1484651587745204E-002  -1.9528938553603492E-003
   5.0583656877279282E-002  0.49609375000000000        4.2816196148761893E-002   4.4930884637502791E-002  -2.1146884887408984E-003
   5.4474707692861557E-002  0.49609375000000000        4.6098276980299474E-002   4.8374533173832716E-002  -2.2762561935332423E-003
   5.8365758508443832E-002  0.49609375000000000        4.9377823622660286E-002   5.1815403252699163E-002  -2.4375796300388775E-003
   6.2256809324026108E-002  0.49609375000000000        5.2654660526053776E-002   5.5253302010205708E-002  -2.5986414841519326E-003
   6.6147856414318085E-002  0.49609375000000000        5.5928613269988520E-002   5.8688034452585892E-002  -2.7594211825973727E-003
   7.0038907229900360E-002  0.49609375000000000        5.9199508638548025E-002   6.2119416683626097E-002  -2.9199080450780721E-003
   7.3929958045482635E-002  0.49609375000000000        6.2467174694985375E-002   6.5547256250598387E-002  -3.0800815556130123E-003
   7.7821008861064911E-002  0.49609375000000000        6.5731440856910586E-002   6.8971365377778412E-002  -3.2399245208678262E-003
   8.1712059676647186E-002  0.49609375000000000        6.8992137970713019E-002   7.2391557753025484E-002  -3.3994197823124656E-003
   8.5603110492229462E-002  0.49609375000000000        7.2249098386645394E-002   7.5807648604238331E-002  -3.5585502175929373E-003
   8.9494161307811737E-002  0.49609375000000000        7.5502156033059958E-002   7.9219454775723702E-002  -3.7172987426637438E-003
   9.3385212123394012E-002  0.49609375000000000        7.8751146491374407E-002   8.2626794804473103E-002  -3.8756483130986952E-003
   9.7276262938976288E-002  0.49609375000000000        8.1995907070107912E-002   8.6029488996343897E-002  -4.0335819262359851E-003
  0.10116731375455856       0.49609375000000000        8.5236276879714870E-002   8.9427359502140896E-002  -4.1910826224260261E-003
  0.10505836457014084       0.49609375000000000        8.8472096906406991E-002   9.2820230393593994E-002  -4.3481334871870031E-003
  0.10894941538572311       0.49609375000000000        9.1703210086840958E-002   9.6207927739228261E-002  -4.5047176523873023E-003
  0.11284046620130539       0.49609375000000000        9.4929461381713320E-002   9.9590279680122226E-002  -4.6608182984089058E-003
  0.11673151701688766       0.49609375000000000        9.8150697850288640E-002  0.10296711650555095       -4.8164186552623056E-003
  0.12062256783246994       0.49609375000000000       0.10136676872375419       0.10633827072850929       -4.9715020047551017E-003
  0.12451361864805222       0.49609375000000000       0.10457752547957513       0.10970357716111263       -5.1260516815374996E-003
  0.12840466201305389       0.49609375000000000       0.10778282191459694       0.11306286656335075       -5.2800446487538122E-003
  0.13229571282863617       0.49609375000000000       0.11098251421921469       0.11641599143627641       -5.4334772170617218E-003
  0.13618676364421844       0.49609375000000000       0.11417646105021090       0.11976278750229356       -5.5863264520826655E-003
  0.14007781445980072       0.49609375000000000       0.11736452360472685       0.12310309952140519       -5.7385759166783401E-003
  0.14396886527538300       0.49609375000000000       0.12054656569282421       0.12643677492776051       -5.8902092349363000E-003
  0.14785991609096527       0.49609375000000000       0.12372245381124630       0.12976366390423955       -6.0412100929932433E-003
  0.15175096690654755       0.49609375000000000       0.12689205721569263       0.13308361945689018       -6.1915622411975457E-003
  0.15564201772212982       0.49609375000000000       0.13005524799435858       0.13639649748921295       -6.3412494948543729E-003
  0.15953306853771210       0.49609375000000000       0.13321190113991224       0.13970215687629192       -6.4902557363796798E-003
  0.16342411935329437       0.49609375000000000       0.13636189462280154       0.14300045953876650       -6.6385649159649562E-003
  0.16731517016887665       0.49609375000000000       0.13950510946292377       0.14629127051664317       -6.7861610537194028E-003
  0.17120622098445892       0.49609375000000000       0.14264142980268907       0.14957445804294203       -6.9330282402529642E-003
  0.17509727180004120       0.49609375000000000       0.14577074297837381       0.15284989361717669       -7.0791506388028780E-003
  0.17898832261562347       0.49609375000000000       0.14889293959293065       0.15611745207866354       -7.2245124857328868E-003
  0.18287937343120575       0.49609375000000000       0.15200791358701649       0.15937701167965834       -7.3690980926418570E-003
  0.18677042424678802       0.49609375000000000       0.15511556231154000       0.16262845415831662       -7.5128918467766148E-003
  0.19066147506237030       0.49609375000000000       0.15821578659835642       0.16587166481147550       -7.6558782131190828E-003
  0.19455252587795258       0.49609375000000000       0.16130849083254356       0.16910653256725450       -7.7980417347109365E-003
  0.19844357669353485       0.49609375000000000       0.16439358302275586       0.17233295005747243       -7.9393670347165657E-003
  0.20233462750911713       0.49609375000000000       0.16747097487322121       0.17555081368987785       -8.0798388166566371E-003
  0.20622567832469940       0.49609375000000000       0.17054058185374737       0.17876002372019117       -8.2194418664437996E-003
  0.21011672914028168       0.49609375000000000       0.17360232327143230       0.18196048432395556       -8.3581610525232664E-003
  0.21400777995586395       0.49609375000000000       0.17665612234031675       0.18515210366819462       -8.4959813278778773E-003
  0.21789883077144623       0.49609375000000000       0.17970190625280158       0.18833479398287487       -8.6328877300732854E-003
  0.22178988158702850       0.49609375000000000       0.18273960624894153       0.19150847163217061       -8.7688653832290742E-003
  0.22568093240261078       0.49609375000000000       0.18576915768756341       0.19467305718552982       -8.9038994979664110E-003
  0.22957198321819305       0.49609375000000000       0.18879050011519630       0.19782847548853819       -9.0379753733418888E-003
  0.23346303403377533       0.49609375000000000       0.19180357733688563       0.20097465573358086       -9.1710783966952314E-003
  0.23735408484935760       0.49609375000000000       0.19480833748475668       0.20411153153029896       -9.3031940455422790E-003
  0.24124513566493988       0.49609375000000000       0.19780473308851948       0.20723904097584014       -9.4343078873206643E-003
  0.24513618648052216       0.49609375000000000       0.20079272114366292       0.21035712672490128       -9.5644055812383610E-003
  0.24902723729610443       0.49609375000000000       0.20377226318164732       0.21346573605956221       -9.6934728779148882E-003
  0.25291827321052551       0.49609375000000000       0.20674332533772694       0.21656480910895265       -9.8214837712257141E-003
  0.25680932402610779       0.49609375000000000       0.20970587842082716       0.21965432635520496       -9.9484479343777965E-003
  0.26070037484169006       0.49609375000000000       0.21265989798099483       0.22273423749290402       -1.0074339511909197E-002
  0.26459142565727234       0.49609375000000000       0.21560536437895828       0.22580450900775292       -1.0199144628794649E-002
  0.26848247647285461       0.49609375000000000       0.21854226285320494       0.22886511235882739       -1.0322849505622456E-002
  0.27237352728843689       0.49609375000000000       0.22147058358922356       0.23191602404713138       -1.0445440457907823E-002
  0.27626457810401917       0.49609375000000000       0.22439032178620963       0.23495722568393682       -1.0566903897727187E-002
  0.28015562891960144       0.49609375000000000       0.22730147772598991       0.23798870405890718       -1.0687226332917271E-002
  0.28404667973518372       0.49609375000000000       0.23020405683935768       0.24101045120800385       -1.0806394368646166E-002
  0.28793773055076599       0.49609375000000000       0.23309806977468017       0.24402246448117582       -1.0924394706495644E-002
  0.29182878136634827       0.49609375000000000       0.23598353246386666       0.24702474660983204       -1.1041214145965372E-002
  0.29571983218193054       0.49609375000000000       0.23886046619066054       0.25001730577409598       -1.1156839583435441E-002
  0.29961088299751282       0.49609375000000000       0.24172889765624406       0.25300015566984368       -1.1271258013599628E-002
  0.30350193381309509       0.49609375000000000       0.24458885904721811       0.25597331557552400       -1.1384456528305886E-002
  0.30739298462867737       0.49609375000000000       0.24744038810084854       0.25893681041876276       -1.1496422317914229E-002
  0.31128403544425964       0.49609375000000000       0.25028352817273725       0.26189067084274997       -1.1607142670012727E-002
  0.31517508625984192       0.49609375000000000       0.25311832830171610       0.26483493327241148       -1.1716604970695377E-002
  0.31906613707542419       0.49609375000000000       0.25594484327721490       0.26776963998036551       -1.1824796703150620E-002
  0.32295718789100647       0.49609375000000000       0.25876313370380932       0.27069483915266529       -1.1931705448855967E-002
  0.32684823870658875       0.49609375000000000       0.26157326606829184       0.27361058495432750       -1.2037318886035653E-002
  0.33073928952217102       0.49609375000000000       0.26437531280388249       0.27651693759464924       -1.2141624790766747E-002
  0.33463034033775330       0.49609375000000000       0.26716935235700928       0.27941396339231345       -1.2244611035304165E-002
  0.33852139115333557       0.49609375000000000       0.26995546925119152       0.28230173484028492       -1.2346265589093408E-002
  0.34241244196891785       0.49609375000000000       0.27273375415353818       0.28518033067049769       -1.2446576516959518E-002
  0.34630349278450012       0.49609375000000000       0.27550430393831377       0.28804983591833655       -1.2545531980022784E-002
  0.35019454360008240       0.49609375000000000       0.27826722175316460       0.29091034198691279       -1.2643120233748195E-002
  0.35408559441566467       0.49609375000000000       0.28102261708237897       0.29376194671113748       -1.2739329628758511E-002
  0.35797664523124695       0.49609375000000000       0.28377060581285213       0.29660475442159379       -1.2834148608741658E-002
  0.36186769604682922       0.49609375000000000       0.28651131029705335       0.29943887600821062       -1.2927565711157274E-002
  0.36575874686241150       0.49609375000000000       0.28924485941874134       0.30226442898373979       -1.3019569564998446E-002
  0.36964979767799377       0.49609375000000000       0.29197138865565375       0.30508153754703909       -1.3110148891385343E-002
  0.37354084849357605       0.49609375000000000       0.29469104014498515       0.30789033264616433       -1.3199292501179183E-002
  0.37743189930915833       0.49609375000000000       0.29740396274581427       0.31069095204127278       -1.3286989295458518E-002
  0.38132295012474060       0.49609375000000000       0.30011031210435968       0.31348354036734083       -1.3373228262981152E-002
  0.38521400094032288       0.49609375000000000       0.30281025071616130       0.31626824919669916       -1.3457998480537858E-002
  0.38910505175590515       0.49609375000000000       0.30550394799113006       0.31904523710138910       -1.3541289110259036E-002
  0.39299610257148743       0.49609375000000000       0.30819158031550120       0.32181466971534245       -1.3623089399841248E-002
  0.39688715338706970       0.49609375000000000       0.31087333111669502       0.32457671979638897       -1.3703388679693951E-002
  0.40077820420265198       0.49609375000000000       0.31354939092506207       0.32733156728809554       -1.3782176363033471E-002
  0.40466925501823425       0.49609375000000000       0.31621995743857323       0.33007939938144060       -1.3859441942867368E-002
  0.40856030583381653       0.49609375000000000       0.31888523558437742       0.33282041057632711       -1.3935174991949684E-002
  0.41245135664939880       0.49609375000000000       0.32154543758334131       0.33555480274293953       -1.4009365159598219E-002
  0.41634240746498108       0.49609375000000000       0.32420078301144162       0.33828278518294830       -1.4082002171506680E-002
  0.42023345828056335       0.49609375000000000       0.32685149886417547       0.34100457469056650       -1.4153075826391026E-002
  0.42412450909614563       0.49609375000000000       0.32949781961781188       0.34372039561346363       -1.4222575995651743E-002
  0.42801555991172791       0.49609375000000000       0.33213998729369476       0.34643047991354081       -1.4290492619846051E-002
  0.43190661072731018       0.49609375000000000       0.33477825151937857       0.34913506722757293       -1.4356815708194359E-002
  0.43579766154289246       0.49609375000000000       0.33741286959284900       0.35183440492772294       -1.4421535334873947E-002
  0.43968871235847473       0.49609375000000000       0.34004410654356926       0.35452874818193292       -1.4484641638363660E-002
  0.44357976317405701       0.49609375000000000       0.34267223519664347       0.35721836001419816       -1.4546124817554684E-002
  0.44747081398963928       0.49609375000000000       0.34529753623380188       0.35990351136473042       -1.4605975130928539E-002
  0.45136186480522156       0.49609375000000000       0.34792029825753490       0.36258448115001446       -1.4664182892479560E-002
  0.45525291562080383       0.49609375000000000       0.35054081785204705       0.36526155632276558       -1.4720738470718531E-002
  0.45914396643638611       0.49609375000000000       0.35315939964738885       0.36793503193179400       -1.4775632284405149E-002
  0.46303501725196838       0.49609375000000000       0.35577635638041161       0.37060521118178169       -1.4828854801370084E-002
  0.46692606806755066       0.49609375000000000       0.35839200895892825       0.37327240549297985       -1.4880396534051599E-002
  0.47081711888313293       0.49609375000000000       0.36100668652270085       0.37593693456083160       -1.4930248038130756E-002
  0.47470816969871521       0.49609375000000000       0.36362072650766186       0.37859912641552906       -1.4978399907867201E-002
  0.47859922051429749       0.49609375000000000       0.36623447470696946       0.38125931748151021       -1.5024842774540748E-002
  0.48249027132987976       0.49609375000000000       0.36884828533532293       0.38391785263690426       -1.5069567301581321E-002
  0.48638132214546204       0.49609375000000000       0.37146252109012090       0.38657508527293200       -1.5112564182811095E-002
  0.49027237296104431       0.49609375000000000       0.37407755321590608       0.38923137735326901       -1.5153824137362937E-002
  0.49416342377662659       0.49609375000000000       0.37669376156566498       0.39188709947338024       -1.5193337907715265E-002
  0.49805447459220886       0.49609375000000000       0.37931153466543749       0.39454263091983366       -1.5231096254396170E-002
  0.50194549560546875       0.49609375000000000       0.38193126977579717       0.39719833938708848       -1.5267069611291317E-002
  0.50583654642105103       0.49609375000000000       0.38455337295666564       0.39985466240074641       -1.5301289444080768E-002
  0.50972759723663330       0.49609375000000000       0.38717825912901277       0.40251198533691984       -1.5333726207907072E-002
  0.51361864805221558       0.49609375000000000       0.38980635213991544       0.40517072283952787       -1.5364370699612440E-002
  0.51750969886779785       0.49609375000000000       0.39243808482452247       0.40783129854014089       -1.5393213715618415E-002
  0.52140074968338013       0.49609375000000000       0.39507389907139695       0.41049414511734889       -1.5420246045951935E-002
  0.52529180049896240       0.49609375000000000       0.39771424588479054       0.41315970435617122       -1.5445458471380680E-002
  0.52918285131454468       0.49609375000000000       0.40035958545031464       0.41582842720751567       -1.5468841757201035E-002
  0.53307390213012695       0.49609375000000000       0.40301038719756710       0.41850077384770007       -1.5490386650132970E-002
  0.53696495294570923       0.49609375000000000       0.40566712986617848       0.42117721373804334       -1.5510083871864866E-002
  0.54085600376129150       0.49609375000000000       0.40833030156883954       0.42385822568453752       -1.5527924115697977E-002
  0.54474705457687378       0.49609375000000000       0.41100039985776737       0.42654429789761172       -1.5543898039844350E-002
  0.54863810539245605       0.49609375000000000       0.41367793178818429       0.42923592805199784       -1.5557996263813545E-002
  0.55252915620803833       0.49609375000000000       0.41636341398525145       0.43193362334670971       -1.5570209361458254E-002
  0.55642020702362061       0.49609375000000000       0.41905737270804977       0.43463790056514567       -1.5580527857095905E-002
  0.56031125783920288       0.49609375000000000       0.42176034391703149       0.43734928613532725       -1.5588942218295765E-002
  0.56420230865478516       0.49609375000000000       0.42447287333855521       0.44006831619028486       -1.5595442851729646E-002
  0.56809335947036743       0.49609375000000000       0.42719551653290688       0.44279553662860166       -1.5600020095694778E-002
  0.57198441028594971       0.49609375000000000       0.42992883895944328       0.44553150317512852       -1.5602664215685236E-002
  0.57587546110153198       0.49609375000000000       0.43267341604523490       0.44827678144188232       -1.5603365396647417E-002
  0.57976651191711426       0.49609375000000000       0.43542983325087381       0.45103194698913868       -1.5602113738264867E-002
  0.58365756273269653       0.49609375000000000       0.43819868613979351       0.45379758538673326       -1.5598899246939746E-002
  0.58754861354827881       0.49609375000000000       0.44098058044479765       0.45657429227558399       -1.5593711830786339E-002
  0.59143966436386108       0.49609375000000000       0.44377613213811262       0.45936267342944659       -1.5586541291333966E-002
  0.59533071517944336       0.49609375000000000       0.44658596749869650       0.46216334481691751       -1.5577377318221008E-002
  0.59922176599502563       0.49609375000000000       0.44941072318308112       0.46497693266369822       -1.5566209480617099E-002
  0.60311281681060791       0.49609375000000000       0.45225104629352164       0.46780407351513315       -1.5553027221611504E-002
  0.60700386762619019       0.49609375000000000       0.45510759444968640       0.47064541429903595       -1.5537819849349543E-002
  0.61089491844177246       0.49609375000000000       0.45798103585770789       0.47350161238881949       -1.5520576531111607E-002
  0.61478596925735474       0.49609375000000000       0.46087204938278098       0.47637333566694173       -1.5501286284160753E-002
  0.61867702007293701       0.49609375000000000       0.46378132461917687       0.47926126258868440       -1.5479937969507529E-002
  0.62256807088851929       0.49609375000000000       0.46670956196381047       0.48216608224627783       -1.5456520282467356E-002
  0.62645912170410156       0.49609375000000000       0.46965747268728086       0.48508849443338714       -1.5431021746106277E-002
  0.63035017251968384       0.49609375000000000       0.47262577900846803       0.48802920970997704       -1.5403430701509013E-002
  0.63424122333526611       0.49609375000000000       0.47561521416666436       0.49098894946756855       -1.5373735300904190E-002
  0.63813227415084839       0.49609375000000000       0.47862652249726323       0.49396844599490386       -1.5341923497640630E-002
  0.64202332496643066       0.49609375000000000       0.48166045950504388       0.49696844254403777       -1.5307983038993889E-002
  0.64591437578201294       0.49609375000000000       0.48471779194101455       0.49998969339686861       -1.5271901455854053E-002
  0.64980542659759521       0.49609375000000000       0.48779929787691456       0.50303296393212815       -1.5233666055213591E-002
  0.65369647741317749       0.49609375000000000       0.49090576678327358       0.50609903069284501       -1.5193263909571431E-002
  0.65758752822875977       0.49609375000000000       0.49403799960519362       0.50918868145430085       -1.5150681849107228E-002
  0.66147857904434204       0.49609375000000000       0.49719680884168505       0.51230271529249527       -1.5105906450810225E-002
  0.66536962985992432       0.49609375000000000       0.50038301862279055       0.51544194265313681       -1.5058924030346255E-002
  0.66926068067550659       0.49609375000000000       0.50359746479025724       0.51860718542117945       -1.5009720630922208E-002
  0.67315173149108887       0.49609375000000000       0.50684099497606105       0.52179927699092055       -1.4958282014859492E-002
  0.67704278230667114       0.49609375000000000       0.51011446868447197       0.52501906233668072       -1.4904593652208753E-002
  0.68093383312225342       0.49609375000000000       0.51341875737203602       0.52826739808408252       -1.4848640712046501E-002
  0.68482488393783569       0.49609375000000000       0.51675474453108472       0.53154515258194823       -1.4790408050863513E-002
  0.68871593475341797       0.49609375000000000       0.52012332577122822       0.53485320597483488       -1.4729880203606660E-002
  0.69260698556900024       0.49609375000000000       0.52352540890435673       0.53819245027622509       -1.4667041371868361E-002
  0.69649803638458252       0.49609375000000000       0.52696191402768999       0.54156378944239736       -1.4601875414707366E-002
  0.70038908720016479       0.49609375000000000       0.53043377361031196       0.54496813944698963       -1.4534365836677665E-002
  0.70428013801574707       0.49609375000000000       0.53394193257781541       0.54840642835628117       -1.4464495778465758E-002
  0.70817118883132935       0.49609375000000000       0.53748734840040147       0.55187959640521200       -1.4392248004810537E-002
  0.71206223964691162       0.49609375000000000       0.54107099117914792       0.55538859607415869       -1.4317604895010771E-002
  0.71595329046249390       0.49609375000000000       0.54469384373569496       0.55893439216649132       -1.4240548430796363E-002
  0.71984434127807617       0.49609375000000000       0.54835690170015083       0.56251796188692704       -1.4161060186776209E-002
  0.72373539209365845       0.49609375000000000       0.55206117360237084       0.56614029492070939       -1.4079121318338550E-002
  0.72762644290924072       0.49609375000000000       0.55580768096150113       0.56980239351362794       -1.3994712552126809E-002
  0.73151749372482300       0.49609375000000000       0.55959745837883634       0.57350527255290518       -1.3907814174068833E-002
  0.73540854454040527       0.49609375000000000       0.56343155362898201       0.57724995964897097       -1.3818406019988960E-002
  0.73929959535598755       0.49609375000000000       0.56731102775425712       0.58103749521814674       -1.3726467463889613E-002
  0.74319064617156982       0.49609375000000000       0.57123695515742767       0.58486893256626526       -1.3631977408837592E-002
  0.74708169698715210       0.49609375000000000       0.57521042369759412       0.58874533797324524       -1.3534914275651122E-002
  0.75097274780273438       0.49609375000000000       0.57923253478441994       0.59266779077864717       -1.3435255994227235E-002
  0.75486379861831665       0.49609375000000000       0.58330440347540924       0.59663738346823358       -1.3332979992824345E-002
  0.75875484943389893       0.49609375000000000       0.58742715857151961       0.60065522176155628       -1.3228063190036665E-002
  0.76264590024948120       0.49609375000000000       0.59160194271569733       0.60472242470059800       -1.3120481984900678E-002
  0.76653695106506348       0.49609375000000000       0.59582991248972084       0.60884012473948990       -1.3010212249769060E-002
  0.77042800188064575       0.49609375000000000       0.60011223851381645       0.61300946783533206       -1.2897229321515602E-002
  0.77431905269622803       0.49609375000000000       0.60445010554453338       0.61723161354014122       -1.2781507995607844E-002
  0.77821010351181030       0.49609375000000000       0.60884471257521167       0.62150773509395230       -1.2663022518740630E-002
  0.78210115432739258       0.49609375000000000       0.61329727293463698       0.62583901951909837       -1.2541746584461388E-002
  0.78599220514297485       0.49609375000000000       0.61780901438808089       0.63022666771569591       -1.2417653327615019E-002
  0.78988325595855713       0.49609375000000000       0.62238117923642977       0.63467189455836259       -1.2290715321932821E-002
  0.79377430677413940       0.49609375000000000       0.62701502441746193       0.63917592899419229       -1.2160904576730358E-002
  0.79766535758972168       0.49609375000000000       0.63171182160509209       0.64374001414201776       -1.2028192536925664E-002
  0.80155640840530396       0.49609375000000000       0.63647285731050540       0.64836540739298432       -1.1892550082478914E-002
  0.80544745922088623       0.49609375000000000       0.64129943298111491       0.65305338051246586       -1.1753947531350950E-002
  0.80933851003646851       0.49609375000000000       0.64619286510113572       0.65780521974334982       -1.1612354642214107E-002
  0.81322956085205078       0.49609375000000000       0.65115448528983699       0.66262222591071895       -1.1467740620881961E-002
  0.81712061166763306       0.49609375000000000       0.65618564040113769       0.66750571452795882       -1.1320074126821122E-002
  0.82101166248321533       0.49609375000000000       0.66128769262074982       0.67245701590432272       -1.1169323283572896E-002
  0.82490271329879761       0.49609375000000000       0.66646201956442908       0.67747747525397761       -1.1015455689548537E-002
  0.82879376411437988       0.49609375000000000       0.67171001437369982       0.68256845280656731       -1.0858438432867490E-002
  0.83268481492996216       0.49609375000000000       0.67703308581253108       0.68773132391931890       -1.0698238106787827E-002
  0.83657586574554443       0.49609375000000000       0.68243265836153211       0.69296747919072332       -1.0534820829191216E-002
  0.84046691656112671       0.49609375000000000       0.68791017231310581       0.69827832457582162       -1.0368152262715813E-002
  0.84435796737670898       0.49609375000000000       0.69346708386437883       0.70366528150312824       -1.0198197638749407E-002
  0.84824901819229126       0.49609375000000000       0.69910486521137238       0.70912978699322093       -1.0024921781848550E-002
  0.85214006900787354       0.49609375000000000       0.70482500464156850       0.71467329377903199       -9.8482891374634951E-003
  0.85603111982345581       0.49609375000000000       0.71062900662844863       0.72029727042786829       -9.6682637994196519E-003
  0.85992217063903809       0.49609375000000000       0.71651839192561761       0.72600320146519914       -9.4848095395815291E-003
  0.86381322145462036       0.49609375000000000       0.72249469766433927       0.73179258750023690       -9.2978898358976325E-003
  0.86770427227020264       0.49609375000000000       0.72855947745272698       0.73766694535335142       -9.1074679006244441E-003
  0.87159532308578491       0.49609375000000000       0.73471430148086370       0.74362780818534513       -8.9135067044814331E-003
  0.87548637390136719       0.49609375000000000       0.74096075663097538       0.74967672562862742       -8.7159689976520349E-003
  0.87937742471694946       0.49609375000000000       0.74730044659767403       0.75581526392031917       -8.5148173226451407E-003