 title ="Partition_3"
 variables = "x", "y", "Temperature", "Temperature exact" "T-Texact"
 zone T=Partition_3 i=         258 j=          66 f=point
   0.0000000000000000       0.74609375000000000        0.0000000000000000        0.0000000000000000        0.0000000000000000     
   3.8910505827516317E-003  0.74609375000000000        6.1016632778175175E-003   6.2224412580982186E-003  -1.2077798028070109E-004
   7.7821011655032635E-003  0.74609375000000000        1.2202640031348043E-002   1.2444179133036621E-002  -2.4153910168857838E-004
   1.1673151515424252E-002  0.74609375000000000        1.8302243872937086E-002   1.8664510008440147E-002  -3.6226613550306014E-004
   1.5564202331006527E-002  0.74609375000000000        2.4399788688179783E-002   2.4882732034404383E-002  -4.8294334622460064E-004
   1.9455252215266228E-002  0.74609375000000000        3.0494588772507318E-002   3.1098140429409105E-002  -6.0355165690178722E-004
   2.3346303030848503E-002  0.74609375000000000        3.6585958967727220E-002   3.7310036174763812E-002  -7.2407720703659278E-004
   2.7237353846430779E-002  0.74609375000000000        4.2673214798502251E-002   4.3517716482674267E-002  -8.4450168417201515E-004
   3.1128404662013054E-002  0.74609375000000000        4.8755672608752555E-002   4.9720480886444506E-002  -9.6480827769195032E-004
   3.5019453614950180E-002  0.74609375000000000        5.4832649697965613E-002   5.5917626925944271E-002  -1.0849772279786576E-003
   3.8910504430532455E-002  0.74609375000000000        6.0903464457398929E-002   6.2108462149769915E-002  -1.2049976923709863E-003
   4.2801555246114731E-002  0.74609375000000000        6.6967436506160022E-002   6.8292286453672676E-002  -1.3248499475126546E-003
   4.6692606061697006E-002  0.74609375000000000        7.3023886827148360E-002   7.4468404088164408E-002  -1.4445172610160484E-003
   5.0583656877279282E-002  0.74609375000000000        7.9072137902844383E-002   8.0636120828619276E-002  -1.5639829257748927E-003
   5.4474707692861557E-002  0.74609375000000000        8.5111513850929910E-002   8.6794744113177086E-002  -1.6832302622471762E-003
   5.8365758508443832E-002  0.74609375000000000        9.1141340559725337E-002   9.2943583180458908E-002  -1.8022426207335712E-003
   6.2256809324026108E-002  0.74609375000000000        9.7160945823427838E-002   9.9081949207079759E-002  -1.9210033836519202E-003
   6.6147856414318085E-002  0.74609375000000000       0.10316965947713624       0.10520914958431912       -2.0394901071828786E-003
   7.0038907229900360E-002  0.74609375000000000       0.10916681353164678       0.11132451150934271       -2.1576979776959243E-003
   7.3929958045482635E-002  0.74609375000000000       0.11515174230800550       0.11742734692392338       -2.2756046159178867E-003
   7.7821008861064911E-002  0.74609375000000000       0.12112378257180136       0.12351697612717646       -2.3931935553751088E-003
   8.1712059676647186E-002  0.74609375000000000       0.12708227366718661       0.12959272204019037       -2.5104483730037652E-003
   8.5603110492229462E-002  0.74609375000000000       0.13302655765060770       0.13565391034199908       -2.6273526913913881E-003
   8.9494161307811737E-002  0.74609375000000000       0.13895597942423407       0.14169986960524400       -2.7438901810099281E-003
   9.3385212123394012E-002  0.74609375000000000       0.14486988686906790       0.14772993143151131       -2.8600445624434034E-003
   9.7276262938976288E-002  0.74609375000000000       0.15076763097772250       0.15374343058632883       -2.9757996086063332E-003
  0.10116731375455856       0.74609375000000000       0.15664856598685223       0.15973970513380839       -3.0911391469561622E-003
  0.10505836457014084       0.74609375000000000       0.16251204950922199       0.16571809657091788       -3.2060470616958880E-003
  0.10894941538572311       0.74609375000000000       0.16835744266539948       0.17167794996136906       -3.3205072959695825E-003
  0.11284046620130539       0.74609375000000000       0.17418411021505800       0.17761861406910609       -3.4345038540480877E-003
  0.11673151701688766       0.74609375000000000       0.17999142068787358       0.18353944149137977       -3.5480208035061911E-003
  0.12062256783246994       0.74609375000000000       0.18577874651400389       0.18943978879139378       -3.6610422773898921E-003
  0.12451361864805222       0.74609375000000000       0.19154546415413337       0.19531901663050771       -3.7735524763743422E-003
  0.12840466201305389       0.74609375000000000       0.19729095422907206       0.20117647870532954       -3.8855244762574792E-003
  0.13229571282863617       0.74609375000000000       0.20301460164889232       0.20701156670106791       -3.9969650521755884E-003
  0.13618676364421844       0.74609375000000000       0.20871579574159202       0.21282364312520174       -4.1078473836097251E-003
  0.14007781445980072       0.74609375000000000       0.21439393038126742       0.21861208634437720       -4.2181559631097876E-003
  0.14396886527538300       0.74609375000000000       0.22004840411578575       0.22437627947726854       -4.3278753614827969E-003
  0.14785991609096527       0.74609375000000000       0.22567862029393976       0.23011561052382506       -4.4369902298853070E-003
  0.15175096690654755       0.74609375000000000       0.23128398719207519       0.23582947249397701       -4.5454853019018249E-003
  0.15564201772212982       0.74609375000000000       0.23686391814017377       0.24151726353578623       -4.6533453956124626E-003
  0.15953306853771210       0.74609375000000000       0.24241783164738195       0.24717838706302800       -4.7605554156460450E-003
  0.16342411935329437       0.74609375000000000       0.24794515152696939       0.25281225188219097       -4.8671003552215875E-003
  0.16731517016887665       0.74609375000000000       0.25344530702070678       0.25841827231888159       -4.9729652981748140E-003
  0.17120622098445892       0.74609375000000000       0.25891773292264786       0.26399586834361977       -5.0781354209719076E-003
  0.17509727180004120       0.74609375000000000       0.26436186970230496       0.26954446569701312       -5.1825959947081612E-003
  0.17898832261562347       0.74609375000000000       0.26977716362720322       0.27506349601429619       -5.2863323870929735E-003
  0.18287937343120575       0.74609375000000000       0.27516306688480358       0.28055239694922246       -5.3893300644188846E-003
  0.18677042424678802       0.74609375000000000       0.28051903770377951       0.28601061229729602       -5.4915745935165128E-003
  0.19066147506237030       0.74609375000000000       0.28584454047463781       0.29143759211833054       -5.5930516436927258E-003
  0.19455252587795258       0.74609375000000000       0.29113904586966899       0.29683279285832331       -5.6937469886543246E-003
  0.19844357669353485       0.74609375000000000       0.29640203096221762       0.30219567747063125       -5.7936465084136302E-003
  0.20233462750911713       0.74609375000000000       0.30163297934525829       0.30752571553643837       -5.8927361911800813E-003
  0.20622567832469940       0.74609375000000000       0.30683138124926868       0.31282238338450047       -5.9910021352317933E-003
  0.21011672914028168       0.74609375000000000       0.31199673365938452       0.31808516421015737       -6.0884305507728498E-003
  0.21400777995586395       0.74609375000000000       0.31712854043182881       0.32331354819359964       -6.1850077617708332E-003
  0.21789883077144623       0.74609375000000000       0.32222631240960115       0.32850703261737862       -6.2807202077774793E-003
  0.22178988158702850       0.74609375000000000       0.32728956753741761       0.33366512198314885       -6.3755544457312352E-003
  0.22568093240261078       0.74609375000000000       0.33231783097589002       0.33878732812763063       -6.4694971517406108E-003
  0.22957198321819305       0.74609375000000000       0.33731063521493426       0.34387317033778281       -6.5625351228485451E-003
  0.23346303403377533       0.74609375000000000       0.34226752018639517       0.34892217546517423       -6.6546552787790647E-003
  0.23735408484935760       0.74609375000000000       0.34718803337588161       0.35393387803954313       -6.7458446636615155E-003
  0.24124513566493988       0.74609375000000000       0.35207172993379560       0.35890782038153396       -6.8360904477383633E-003
  0.24513618648052216       0.74609375000000000       0.35691817278555238       0.36384355271460161       -6.9253799290492357E-003
  0.24902723729610443       0.74609375000000000       0.36172693274097445       0.36874063327607237       -7.0137005350979220E-003
  0.25291827321052551       0.74609375000000000       0.36649758860285686       0.37359860989856797       -7.1010212957111074E-003
  0.25680932402610779       0.74609375000000000       0.37122972727468706       0.37841709438659915       -7.1873671119120908E-003
  0.26070037484169006       0.74609375000000000       0.37592294386751718       0.38319565099757391       -7.2727071300567325E-003
  0.26459142565727234       0.74609375000000000       0.38057684180597273       0.38793387111767080       -7.3570293116980712E-003
  0.26848247647285461       0.74609375000000000       0.38519103293339496       0.39263135468925181       -7.4403217558568491E-003
  0.27237352728843689       0.74609375000000000       0.38976513761610243       0.39728771031666044       -7.5225727005580056E-003
  0.27626457810401917       0.74609375000000000       0.39429878484676850       0.40190255537110980       -7.6037705243413023E-003
  0.28015562891960144       0.74609375000000000       0.39879161234690075       0.40647551609465238       -7.6839037477516303E-003
  0.28404667973518372       0.74609375000000000       0.40324326666842070       0.41100622770322298       -7.7629610348022848E-003
  0.28793773055076599       0.74609375000000000       0.40765340329432803       0.41549433448874667       -7.8409311944186433E-003
  0.29182878136634827       0.74609375000000000       0.41202168673844997       0.41993948992030328       -7.9178031818533112E-003
  0.29571983218193054       0.74609375000000000       0.41634779064425936       0.42434135674433998       -7.9935661000806180E-003
  0.29961088299751282       0.74609375000000000       0.42063139788276344       0.42869960708392635       -8.0682092011629125E-003
  0.30350193381309509       0.74609375000000000       0.42487220064944603       0.43301392253704102       -8.1417218875949882E-003
  0.30739298462867737       0.74609375000000000       0.42906990056026628       0.43728399427388615       -8.2140937136198633E-003
  0.31128403544425964       0.74609375000000000       0.43322420874669765       0.44150952313321962       -8.2853143865219692E-003
  0.31517508625984192       0.74609375000000000       0.43733484594980943       0.44569021971770023       -8.3553737678908058E-003
  0.31906613707542419       0.74609375000000000       0.44140154261337583       0.44982580448823772       -8.4242618748618936E-003
  0.32295718789100647       0.74609375000000000       0.44542403897601474       0.45391600785734232       -8.4919688813275829E-003
  0.32684823870658875       0.74609375000000000       0.44940208516234292       0.45796057028146647       -8.5584851191235489E-003
  0.33073928952217102       0.74609375000000000       0.45333544127314795       0.46195924235233399       -8.6238010791860331E-003
  0.33463034033775330       0.74609375000000000       0.45722387747456666       0.46591178488724916       -8.6879074126824940E-003
  0.33852139115333557       0.74609375000000000       0.46106717408626829       0.46981796901838235       -8.7507949321140588E-003
  0.34241244196891785       0.74609375000000000       0.46486512166863497       0.47367757628102430       -8.8124546123893310E-003
  0.34630349278450012       0.74609375000000000       0.46861752110893679       0.47749039870080706       -8.8728775918702762E-003
  0.35019454360008240       0.74609375000000000       0.47232418370649432       0.48125623887988328       -8.9320551733889642E-003
  0.35408559441566467       0.74609375000000000       0.47598493125682712       0.48497491008206145       -8.9899788252343349E-003
  0.35797664523124695       0.74609375000000000       0.47959959613478148       0.48864623631689297       -9.0466401821114872E-003
  0.36186769604682922       0.74609375000000000       0.48316802137663606       0.49227005242270422       -9.1020310460681597E-003
  0.36575874686241150       0.74609375000000000       0.48669006076117904       0.49584620414857411       -9.1561433873950659E-003
  0.36964979767799377       0.74609375000000000       0.49016557888975643       0.49937454823524746       -9.2089693454910360E-003
  0.37354084849357605       0.74609375000000000       0.49359445126528456       0.50285495249498735       -9.2605012297027889E-003
  0.37743189930915833       0.74609375000000000       0.49697656437022941       0.50628729589035848       -9.3107315201290675E-003
  0.38132295012474060       0.74609375000000000       0.50031181574354289       0.50967146861193946       -9.3596528683965730E-003
  0.38521400094032288       0.74609375000000000       0.50360011405656135       0.51300737215496350       -9.4072580984021492E-003
  0.38910505175590515       0.74609375000000000       0.50684137918785632       0.51629491939488303       -9.4535402070267116E-003
  0.39299610257148743       0.74609375000000000       0.51003554229704517       0.51953403466185588       -9.4984923648107067E-003
  0.39688715338706970       0.74609375000000000       0.51318254589754719       0.52272465381415256       -9.5421079166053691E-003
  0.40077820420265198       0.74609375000000000       0.51628234392829886       0.52586672431048165       -9.5843803821827889E-003
  0.40466925501823425       0.74609375000000000       0.51933490182441155       0.52896020528123300       -9.6253034568214435E-003
  0.40856030583381653       0.74609375000000000       0.52234019658678621       0.53200506759863608       -9.6648710118498737E-003
  0.41245135664939880       0.74609375000000000       0.52529821685066946       0.53500129394583429       -9.7030770951648249E-003
  0.41634240746498108       0.74609375000000000       0.52820896295316333       0.53794887888487297       -9.7399159317096418E-003
  0.42023345828056335       0.74609375000000000       0.53107244699968015       0.54084782892360195       -9.7753819239217998E-003
  0.42412450909614563       0.74609375000000000       0.53388869292934737       0.54369816258149151       -9.8094696521441316E-003
  0.42801555991172791       0.74609375000000000       0.53665773657935878       0.54649991045436352       -9.8421738750047449E-003
  0.43190661072731018       0.74609375000000000       0.53937962574827947       0.54925311527803566       -9.8734895297561964E-003
  0.43579766154289246       0.74609375000000000       0.54205442025829520       0.55195783199088222       -9.9034117325870197E-003
  0.43968871235847473       0.74609375000000000       0.54468219201641910       0.55461412779530916       -9.9319357788900664E-003
  0.44357976317405701       0.74609375000000000       0.54726302507464719       0.55722208221814895       -9.9590571435017594E-003
  0.44747081398963928       0.74609375000000000       0.54979701568907124       0.55978178716997207       -9.9847714809008226E-003
  0.45136186480522156       0.74609375000000000       0.55228427237794686       0.56229334700332068       -1.0009074625373815E-002
  0.45525291562080383       0.74609375000000000       0.55472491597872198       0.56475687856986423       -1.0031962591142252E-002
  0.45914396643638611       0.74609375000000000       0.55711907970402597       0.56717251127647983       -1.0053431572453864E-002
  0.46303501725196838       0.74609375000000000       0.55946690919662512       0.56954038714026123       -1.0073477943636111E-002
  0.46692606806755066       0.74609375000000000       0.56176856258334207       0.57186066084245757       -1.0092098259115501E-002
  0.47081711888313293       0.74609375000000000       0.56402421052795193       0.57413349978134576       -1.0109289253393827E-002
  0.47470816969871521       0.74609375000000000       0.56623403628304780       0.57635908412404047       -1.0125047840992663E-002
  0.47859922051429749       0.74609375000000000       0.56839823574088888       0.57853760685724476       -1.0139371116355878E-002
  0.48249027132987976       0.74609375000000000       0.57051701748322947       0.58066927383694555       -1.0152256353716083E-002
  0.48638132214546204       0.74609375000000000       0.57259060283013707       0.58275430383705851       -1.0163701006921433E-002
  0.49027237296104431       0.74609375000000000       0.57461922588780112       0.58479292859702636       -1.0173702709225241E-002
  0.49416342377662659       0.74609375000000000       0.57660313359534199       0.58678539286837650       -1.0182259273034511E-002
  0.49805447459220886       0.74609375000000000       0.57854258577061946       0.58873195446024196       -1.0189368689622502E-002
  0.50194549560546875       0.74609375000000000       0.58043785515505364       0.59063286989829000       -1.0195014743236364E-002
  0.50583654642105103       0.74609375000000000       0.58228922745745637       0.59248845235664049       -1.0199224899184123E-002
  0.50972759723663330       0.74609375000000000       0.58409700139688825       0.59429898434599815       -1.0201982949109900E-002
  0.51361864805221558       0.74609375000000000       0.58586148874453781       0.59606477634050314       -1.0203287595965338E-002
  0.51750969886779785       0.74609375000000000       0.58758301436464022       0.59778615208416641       -1.0203137719526190E-002
  0.52140074968338013       0.74609375000000000       0.58926191625443269       0.59946344863029888       -1.0201532375866185E-002
  0.52529180049896240       0.74609375000000000       0.59089854558316279       0.60109701637994906       -1.0198470796786263E-002
  0.52918285131454468       0.74609375000000000       0.59249326673015013       0.60268721911935685       -1.0193952389206729E-002
  0.53307390213012695       0.74609375000000000       0.59404645732191552       0.60423443405642996       -1.0187976734514437E-002
  0.53696495294570923       0.74609375000000000       0.59555850826837942       0.60573905185625343       -1.0180543587874014E-002
  0.54085600376129150       0.74609375000000000       0.59702982379814662       0.60720147667563873       -1.0171652877492110E-002
  0.54474705457687378       0.74609375000000000       0.59846082149287672       0.60862212619672096       -1.0161304703844243E-002
  0.54863810539245605       0.74609375000000000       0.59985193232075829       0.61000143165961551       -1.0149499338857226E-002
  0.55252915620803833       0.74609375000000000       0.60120360066908796       0.61133983789414070       -1.0136237225052747E-002
  0.55642020702362061       0.74609375000000000       0.60251628437597438       0.61263780335061813       -1.0121518974643751E-002
  0.56031125783920288       0.74609375000000000       0.60379045476116322       0.61389580012975931       -1.0105345368596086E-002
  0.56420230865478516       0.74609375000000000       0.60502659665601166       0.61511431401164973       -1.0087717355638071E-002
  0.56809335947036743       0.74609375000000000       0.60622520843260208       0.61629384448384006       -1.0068636051237978E-002
  0.57198441028594971       0.74609375000000000       0.60738680203202788       0.61743490476855600       -1.0048102736528119E-002
  0.57587546110153198       0.74609375000000000       0.60851190299184199       0.61853802184903872       -1.0026118857196731E-002
  0.57976651191711426       0.74609375000000000       0.60960105047269852       0.61960373649502409       -1.0002686022325569E-002
  0.58365756273269653       0.74609375000000000       0.61065479728418193       0.62063260328737679       -9.9778060031948668E-003
  0.58754861354827881       0.74609375000000000       0.61167370990985304       0.62162519064188881       -9.9514807320357779E-003
  0.59143966436386108       0.74609375000000000       0.61265836853150746       0.62258208083225475       -9.9237123007472894E-003
  0.59533071517944336       0.74609375000000000       0.61360936705267666       0.62350387001223706       -9.8945029595604028E-003
  0.59922176599502563       0.74609375000000000       0.61452731312136599       0.62439116823703478       -9.8638551156687848E-003
  0.60311281681060791       0.74609375000000000       0.61541282815206377       0.62524459948386890       -9.8317713318051281E-003
  0.60700386762619019       0.74609375000000000       0.61626654734701392       0.62606480167179623       -9.7982543247823184E-003
  0.61089491844177246       0.74609375000000000       0.61708911971678626       0.62685242668076802       -9.7633069639817549E-003
  0.61478596925735474       0.74609375000000000       0.61788120810014080       0.62760814036994772       -9.7269322698069205E-003
  0.61867702007293701       0.74609375000000000       0.61864348918321777       0.62833262259529843       -9.6891334120806638E-003
  0.62256807088851929       0.74609375000000000       0.61937665351805093       0.62902656722646122       -9.6499137084102848E-003
  0.62645912170410156       0.74609375000000000       0.62008140554043756       0.62969068216293378       -9.6092766224962212E-003
  0.63035017251968384       0.74609375000000000       0.62075846358716258       0.63032568934956856       -9.5672257624059842E-003
  0.63424122333526611       0.74609375000000000       0.62140855991261079       0.63093232479140371       -9.5237648787929174E-003
  0.63813227415084839       0.74609375000000000       0.62203244070476515       0.63151133856784558       -9.4788978630804266E-003
  0.64202332496643066       0.74609375000000000       0.62263086610062657       0.63206349484621671       -9.4326287455901436E-003
  0.64591437578201294       0.74609375000000000       0.62320461020105267       0.63258957189468734       -9.3849616936346747E-003
  0.64980542659759521       0.74609375000000000       0.62375446108505206       0.63309036209460734       -9.3359010095552808E-003
  0.65369647741317749       0.74609375000000000       0.62428122082353288       0.63356667195225591       -9.2854511287230324E-003
  0.65758752822875977       0.74609375000000000       0.62478570549254109       0.63401932211002687       -9.2336166174857848E-003
  0.66147857904434204       0.74609375000000000       0.62526874518598952       0.63444914735706681       -9.1804021710772954E-003
  0.66536962985992432       0.74609375000000000       0.62573118402791417       0.63485699663938566       -9.1258126114714955E-003
  0.66926068067550659       0.74609375000000000       0.62617388018425602       0.63524373306945736       -9.0698528852013460E-003
  0.67315173149108887       0.74609375000000000       0.62659770587421060       0.63561023393532945       -9.0125280611188519E-003
  0.67704278230667114       0.74609375000000000       0.62700354738113950       0.63595739070926260       -8.9538433281231011E-003
  0.68093383312225342       0.74609375000000000       0.62739230506308918       0.63628610905591698       -8.8938039928277979E-003
  0.68482488393783569       0.74609375000000000       0.62776489336291230       0.63659730884010646       -8.8324154771941554E-003
  0.68871593475341797       0.74609375000000000       0.62812224081803569       0.63689192413414397       -8.7696833161082788E-003
  0.69260698556900024       0.74609375000000000       0.62846529006987195       0.63717090322479131       -8.7056131549193561E-003
  0.69649803638458252       0.74609375000000000       0.62879499787291893       0.63743520861984293       -8.6402107469240041E-003
  0.70038908720016479       0.74609375000000000       0.62911233510354636       0.63768581705435845       -8.5734819508120896E-003
  0.70428013801574707       0.74609375000000000       0.62941828676851141       0.63792371949656679       -8.5054327280553732E-003
  0.70817118883132935       0.74609375000000000       0.62971385201320640       0.63814992115346747       -8.4360691402610710E-003
  0.71206223964691162       0.74609375000000000       0.63000004412967803       0.63836544147614482       -8.3653973464667963E-003
  0.71595329046249390       0.74609375000000000       0.63027789056442463       0.63857131416482371       -8.2934236003990858E-003
  0.71984434127807617       0.74609375000000000       0.63054843292601026       0.63876858717368523       -8.2201542476749712E-003
  0.72373539209365845       0.74609375000000000       0.63081272699250257       0.63895832271546749       -8.1455957229649156E-003
  0.72762644290924072       0.74609375000000000       0.63107184271877281       0.63914159726587472       -8.0697545471019039E-003
  0.73151749372482300       0.74609375000000000       0.63132686424366935       0.63931950156781769       -7.9926373241483439E-003
  0.73540854454040527       0.74609375000000000       0.63157888989709954       0.63949314063550999       -7.9142507384104555E-003
  0.73929959535598755       0.74609375000000000       0.63182903220703357       0.63966363375844459       -7.8346015514110245E-003
  0.74319064617156982       0.74609375000000000       0.63207841790646746       0.63983211450527544       -7.7536965988079798E-003
  0.74708169698715210       0.74609375000000000       0.63232818794035472       0.63999973072762839       -7.6715427872736663E-003
  0.75097274780273438       0.74609375000000000       0.63257949747255093       0.64016764456386732       -7.5881470913163884E-003
  0.75486379861831665       0.74609375000000000       0.63283351589277681       0.64033703244284135       -7.5035165500645373E-003
  0.75875484943389893       0.74609375000000000       0.63309142682364450       0.64050908508763860       -7.4176582639940980E-003
  0.76264590024948120       0.74609375000000000       0.63335442812775633       0.64068500751937274       -7.3305793916164097E-003
  0.76653695106506348       0.74609375000000000       0.63362373191491916       0.64086601906102936       -7.2422871461101934E-003
  0.77042800188064575       0.74609375000000000       0.63390056454948596       0.64105335334139812       -7.1527887919121680E-003
  0.77431905269622803       0.74609375000000000       0.63418616665786476       0.64124825829911991       -7.0620916412551527E-003
  0.77821010351181030       0.74609375000000000       0.63448179313621167       0.64145199618687421       -6.9702030506625379E-003
  0.78210115432739258       0.74609375000000000       0.63478871315834628       0.64166584357573531       -6.8771304173890213E-003
  0.78599220514297485       0.74609375000000000       0.63510821018390684       0.64189109135972677       -6.7828811758199326E-003
  0.78988325595855713       0.74609375000000000       0.63544158196678635       0.64212904476060151       -6.6874627938151576E-003
  0.79377430677413940       0.74609375000000000       0.63579014056386296       0.64238102333287528       -6.5908827690123184E-003
  0.79766535758972168       0.74609375000000000       0.63615521234407146       0.64264836096914557       -6.4931486250741077E-003
  0.80155640840530396       0.74609375000000000       0.63653813799782788       0.64293240590572298       -6.3942679078951015E-003
  0.80544745922088623       0.74609375000000000       0.63694027254685293       0.64323452072860476       -6.2942481817518381E-003
  0.80933851003646851       0.74609375000000000       0.63736298535440983       0.64355608237982320       -6.1930970254133744E-003
  0.81322956085205078       0.74609375000000000       0.63780766013600221       0.64389848216419687       -6.0908220281946646E-003
  0.81712061166763306       0.74609375000000000       0.63827569497054593       0.64426312575651412       -5.9874307859681952E-003
  0.82101166248321533       0.74609375000000000       0.63876850231206372       0.64465143320918605       -5.8829308971223293E-003
  0.82490271329879761       0.74609375000000000       0.63928750900191655       0.64506483896039224       -5.7773299584756854E-003
  0.82879376411437988       0.74609375000000000       0.63983415628162099       0.64550479184275722       -5.6706355611362280E-003
  0.83268481492996216       0.74609375000000000       0.64040989980626706       0.64597275509258700       -5.5628552863199454E-003
  0.83657586574554443       0.74609375000000000       0.64101620965858619       0.64647020635969710       -5.4539967011109081E-003
  0.84046691656112671       0.74609375000000000       0.64165457036368578       0.64699863771786859       -5.3440673541828021E-003
  0.84435796737670898       0.74609375000000000       0.64232648090449751       0.64755955567596002       -5.2330747714625092E-003
  0.84824901819229126       0.74609375000000000       0.64303345473796258       0.64815448118971297       -5.1210264517503878E-003
  0.85214006900787354       0.74609375000000000       0.64377701981199376       0.64878494967428202       -5.0079298622882629E-003
  0.85603111982345581       0.74609375000000000       0.64455871858324398       0.64945251101752466       -4.8937924342806749E-003
  0.85992217063903809       0.74609375000000000       0.64538010803572043       0.65015872959408483       -4.7786215583643932E-003
  0.86381322145462036       0.74609375000000000       0.64624275970027367       0.65090518428030442       -4.6624245800307440E-003
  0.86770427227020264       0.74609375000000000       0.64714825967500178       0.65169346846999832       -4.5452087949965359E-003
  0.87159532308578491       0.74609375000000000       0.64809820864660017       0.65252519009112775       -4.4269814445275779E-003
  0.87548637390136719       0.74609375000000000       0.64909422191269783       0.65340197162340830       -4.3077497107104623E-003
  0.87937742471694946       0.74609375000000000       0.65013792940521009       0.65432545011688625       -4.1875207116761626E-003